ITEM: TIMESTEP
0
ITEM: NUMBER OF ATOMS
1000
ITEM: BOX BOUNDS ff ff ff
-5.0000000000000000e+02 5.0000000000000000e+02
-5.0000000000000000e+02 5.0000000000000000e+02
-5.0000000000000000e+02 5.0000000000000000e+02
ITEM: ATOMS id type mass x y z vx vy vz v_F_shock
179 1 1.02695 -5.21771 -36.3331 -1.38414 -0.0219073 0.0096226 -0.0237021 1.1198e-12
499 1 0.948787 -2.27996 -36.0457 -1.28061 -0.00600645 0.000622345 -0.0180337 3.4942e-13
805 1 1.02896 0.848376 -36.0009 -1.38328 0.0517232 -0.0105661 0.00926096 9.84046e-14
145 1 0.925053 3.57632 -35.416 -1.24005 0.000509028 -0.0172888 0.0201796 3.186e-14
233 1 0.983752 7.48371 -35.7669 -1.31392 -0.00929044 0.00590272 -0.0214587 6.10511e-15
307 1 1.03493 -13.9404 -33.9867 -1.38549 0.00252655 -0.0173847 0.0208387 3.07646e-11
343 1 0.968979 -11.3589 -35.0977 -1.30109 -0.0132813 -0.0028922 -0.00891645 1.18035e-11
618 1 1.11352 -8.83 -34.93 -1.49771 -0.00378041 0.0276949 0.00824128 4.53358e-12
501 1 1.01977 -6.18736 -34.0267 -1.36599 -0.00558125 0.0034499 0.00206126 1.63584e-12
466 1 0.933927 -0.966347 -33.7972 -1.25627 -0.0223725 -0.0137466 0.00141967 2.05936e-13
478 1 1.00456 5.8179 -33.6687 -1.34943 -0.0105353 0.0261633 -0.0216394 1.2414e-14
232 1 0.94904 10.1506 -34.3248 -1.2694 0.00827021 0.014988 -0.00909815 1.92799e-15
316 1 1.03268 -16.431 -32.3638 -1.37519 0.00157425 -0.0137653 0.0270226 7.61456e-11
85 1 1.01392 -11.2749 -32.2842 -1.3486 0.000665314 -0.00948314 0.000480562 1.14376e-11
659 1 0.964892 -8.45625 -32.4991 -1.28985 0.0251946 0.00362781 0.0341577 3.92966e-12
845 1 1.00742 -3.62922 -33.5198 -1.34981 -0.0104786 0.0197023 -0.011047 5.98377e-13
794 1 0.978906 1.42379 -33.4089 -1.31486 0.0270535 -0.0150655 0.00116634 7.7709e-14
223 1 1.03766 3.67644 -32.4825 -1.39447 -0.0152023 0.00552386 0.00965419 3.05558e-14
788 1 1.00674 8.26474 -32.575 -1.34552 -0.000622711 0.0261616 0.00645196 4.36518e-15
973 1 1.00704 12.9181 -33.3183 -1.35816 -0.00607098 0.0123956 0.0190774 5.7062e-16
185 1 1.08736 15.6666 -32.2655 -1.45304 0.0105789 -0.00587045 0.0058958 1.66663e-16
916 1 1.04588 -21.9341 -30.4231 -1.40511 -0.0111436 0.00746822 -0.0061957 5.2982e-10
648 1 1.00317 -19.0181 -30.5084 -1.34184 -0.00990444 -0.0135874 -0.0154955 1.91588e-10
765 1 0.978564 -13.984 -31.1193 -1.32444 0.00421816 0.00810119 0.00439725 3.12613e-11
147 1 1.05098 -9.72438 -30.3544 -1.4129 0.0216064 -0.0210558 0.0221976 6.37256e-12
692 1 1.02644 -5.74921 -31.3806 -1.39013 -0.00927675 0.00973301 0.000404228 1.37882e-12
134 1 0.963195 -2.88752 -31.4195 -1.29858 -0.0198733 -0.000182983 -0.020148 4.45479e-13
619 1 0.990337 -0.406516 -31.2535 -1.31377 -0.0131103 0.0346389 -0.00303909 1.64145e-13
346 1 1.00516 1.92723 -30.7994 -1.33982 -0.00657303 0.00482263 -0.0549037 6.31568e-14
240 1 1.05557 5.92568 -31.1493 -1.42805 0.0147332 0.0164302 0.0197106 1.18597e-14
457 1 1.0316 10.7722 -31.3654 -1.38077 -0.00855128 -0.00885258 -0.0117578 1.4695e-15
126 1 1.02687 13.341 -30.4832 -1.38385 -0.0104507 -0.0391742 -0.01131 4.72846e-16
356 1 1.00154 18.802 -31.5683 -1.34955 0.0073161 -0.000266278 -0.0123702 3.98755e-17
31 1 1.01442 -16.5316 -29.3641 -1.36572 0.00268087 0.0102049 0.0249336 7.89549e-11
249 1 0.996243 -12.1144 -29.6753 -1.33794 -0.0164462 -0.0292649 -0.00592416 1.56535e-11
561 1 1.02344 -7.59212 -29.6542 -1.38186 0.0246532 0.00621647 0.000700421 2.81931e-12
312 1 1.02297 -4.39289 -29.6627 -1.36933 0.0213514 -0.00809323 -0.00552197 8.09483e-13
141 1 0.984119 -1.92148 -29.1653 -1.31658 0.00610015 -0.00471408 0.0010497 3.02621e-13
843 1 1.05289 0.50472 -28.9436 -1.41521 -0.00106359 0.00647928 0.00529111 1.13256e-13
968 1 0.961981 3.92567 -29.8747 -1.29306 -0.0166572 -0.0150354 -0.00524442 2.75334e-14
667 1 1.10638 6.06874 -28.7232 -1.48576 0.00405372 0.00773384 -0.00463988 1.11614e-14
228 1 1.04824 8.14616 -29.9896 -1.4013 0.0212666 -0.00567503 0.0298777 4.59379e-15
568 1 0.921896 10.2015 -29.2695 -1.2335 -0.0208075 -0.0441965 -0.0078458 1.88572e-15
124 1 1.04023 16.0485 -29.6426 -1.40772 0.0061363 0.00167447 0.000575998 1.40227e-16
373 1 0.990922 18.4462 -28.4322 -1.32027 0.0253079 0.000351346 0.0235396 4.69673e-17
578 1 1.03917 20.9212 -29.8236 -1.40495 0.0195253 -0.0054915 -0.0266909 1.49275e-17
454 1 0.998409 23.3519 -28.4977 -1.34517 -0.0109368 0.00787626 0.0202083 4.76114e-18
146 1 1.00399 -24.3546 -27.9567 -1.34572 -0.00348763 0.0136493 0.0282207 1.2101e-09
114 1 1.02184 -21.1956 -27.9895 -1.37015 -0.00244306 0.0145984 -0.011455 4.10433e-10
300 1 0.937251 -18.4906 -27.7305 -1.2674 -0.00246848 0.00391407 0.0417481 1.58981e-10
252 1 1.01326 -16.0611 -26.8129 -1.36174 -0.0105306 0.0133715 -0.0090657 6.66316e-11
668 1 0.956527 -14.3548 -28.2815 -1.2875 0.0138678 0.0178586 -0.0100385 3.58159e-11
848 1 0.999578 -12.038 -27.1833 -1.34951 -0.000585143 -0.0225845 0.0094174 1.52144e-11
985 1 1.02427 -9.65792 -28.2356 -1.37031 0.0372042 0.00723615 0.00358849 6.21383e-12
98 1 1.02264 -7.80519 -27.0177 -1.37476 -0.0137905 -0.00343455 -0.00410009 3.06047e-12
720 1 1.09285 -5.89016 -28.0856 -1.46257 -0.00231041 0.0104387 -0.0120051 1.45685e-12
94 1 0.99748 -3.66265 -27.5097 -1.3388 -0.0257689 -0.0182249 -0.011193 6.06364e-13
992 1 0.989016 -1.12002 -27.1509 -1.32851 -0.010218 -0.017403 0.0294142 2.19131e-13
315 1 1.04555 2.46698 -28.2121 -1.4079 0.0162073 -0.00956298 -0.00112169 5.0527e-14
500 1 1.09901 4.49579 -27.2914 -1.48701 -0.00547867 0.00615543 -0.00704592 2.16817e-14
74 1 0.973199 8.23101 -27.6436 -1.30477 0.0368847 0.00902581 0.0175554 4.42904e-15
498 1 1.01487 10.5055 -26.9457 -1.37044 0.0112376 0.0237876 0.0164221 1.65135e-15
783 1 1.04805 12.3352 -28.3721 -1.41307 -0.00107676 0.00541057 -0.0129059 7.38748e-16
854 1 0.973185 14.5458 -27.6724 -1.3176 0.00605245 0.0137935 -0.00426122 2.7601e-16
234 1 1.01325 16.7016 -26.806 -1.37322 0.00658286 -0.00342909 0.0358152 1.04268e-16
113 1 1.00305 20.9498 -27.0588 -1.34114 -0.0119188 0.00860239 0.0277003 1.47292e-17
456 1 1.0811 -25.8567 -25.5623 -1.45274 -0.0277428 -0.0178176 0.00422357 2.00347e-09
221 1 1.00372 -22.6613 -25.5471 -1.35358 0.0138517 -0.00468454 -0.00373007 6.80212e-10
976 1 0.951391 -20.2171 -25.3778 -1.28433 -0.00679889 0.0302578 -0.00236941 2.91937e-10
935 1 1.00065 -18.0926 -25.3753 -1.34858 -0.00365488 -0.000628747 0.00922732 1.3803e-10
870 1 1.04468 -14.086 -26.0565 -1.40663 0.0326199 0.0181228 0.0176875 3.2454e-11
117 1 0.980446 -10.3403 -26.0207 -1.31341 -0.0251994 -0.00186224 -0.0116887 8.04595e-12
698 1 1.01847 -8.39927 -25.0531 -1.36187 -0.00658606 0.00368897 -0.00089817 3.8448e-12
5 1 0.998186 -5.44206 -26.0574 -1.34671 0.00396543 0.00799814 0.0227699 1.22272e-12
779 1 0.987321 -2.61739 -25.7198 -1.32497 0.00665347 -0.0254999 0.00874049 3.99931e-13
293 1 1.00611 -0.410706 -25.0477 -1.33965 -0.0143721 -0.0319236 0.00168334 1.64424e-13
988 1 1.02468 0.915235 -26.5588 -1.37061 -0.00415419 -0.00637567 0.00274352 9.57462e-14
135 1 0.991053 2.96634 -25.7451 -1.32551 -0.00562204 0.00128176 0.00372965 4.10732e-14
596 1 1.01283 6.44685 -26.3423 -1.36462 0.00709892 0.00240995 -0.0294661 9.50477e-15
93 1 0.985295 8.75814 -25.3924 -1.32058 0.00976282 -0.00140837 0.0138142 3.52838e-15
873 1 1.01093 12.7222 -26.1568 -1.37042 -0.0346048 0.0333811 0.00202599 6.22429e-16
662 1 0.972058 14.9645 -25.1106 -1.2987 -0.0163246 0.0311092 -0.0031906 2.28704e-16
67 1 1.00362 19.0688 -25.3992 -1.34317 0.0109181 0.0247849 -0.00204478 3.52594e-17
365 1 1.03457 23.5088 -25.6148 -1.3889 -0.0147885 0.00762029 0.0137415 4.42003e-18
156 1 0.981303 -24.4791 -23.2959 -1.32298 -0.0004177 0.0174448 -0.0172613 1.26206e-09
777 1 1.0575 -15.9027 -24.3654 -1.42156 -0.00954377 0.0185017 -0.00433492 6.29207e-11
547 1 1.03312 -12.298 -24.5974 -1.39515 -0.00413335 0.0229192 0.00407695 1.67613e-11
676 1 1.01979 -10.2303 -23.8428 -1.36067 0.0017573 0.00136202 -0.0200262 7.71839e-12
50 1 0.947617 -6.63472 -24.3327 -1.27431 -0.00740364 0.00376925 0.000209783 1.94667e-12
486 1 1.05511 -4.16218 -24.3654 -1.41259 0.00846905 -0.0117782 0.0192394 7.38988e-13
587 1 1.09878 -1.96919 -23.7277 -1.47747 0.00305436 -0.00724946 0.00420252 3.08475e-13
531 1 1.02195 1.66696 -24.23 -1.37691 0.0163366 0.00274677 -0.0249767 7.03094e-14
639 1 0.94132 3.4719 -23.3665 -1.27461 -0.00820231 0.0163195 -0.00722053 3.32784e-14
150 1 1.00465 4.88939 -24.9106 -1.33685 0.0336347 -0.0408864 -0.00805537 1.83746e-14
721 1 1.04675 6.94964 -24.1899 -1.40353 -0.0261519 -0.0243937 -0.00440634 7.67157e-15
397 1 1.02015 9.05147 -23.3725 -1.37513 0.0127696 -0.0334562 -0.00942895 3.10803e-15
112 1 0.989496 10.8334 -24.6439 -1.32638 0.010176 0.0246046 -0.00411919 1.43064e-15
463 1 0.995778 13.193 -23.9628 -1.34285 0.00805341 -0.0407084 -0.0184116 5.05028e-16
893 1 1.02639 17.1065 -24.2819 -1.38084 -0.0276566 0.00626931 0.0165021 8.67173e-17
910 1 1.03953 21.3073 -24.1934 -1.40353 0.024214 -0.0106377 -0.0067876 1.24633e-17
100 1 0.977476 26.0191 -24.3954 -1.31245 6.41607e-05 0.024471 -0.0373619 1.33276e-18
451 1 0.982373 -29.9666 -22.1199 -1.3306 0.0190502 0.00124987 -0.0136456 7.70251e-09
722 1 1.01219 -27.1862 -23.0137 -1.36468 -0.00285625 -0.00514202 0.00315379 3.1136e-09
920 1 0.979029 -22.1903 -23.0367 -1.31159 0.0058636 -0.00498852 -0.0144864 5.78672e-10
817 1 0.981725 -19.8443 -22.8093 -1.32789 -0.0182346 0.00645619 -0.0197425 2.56212e-10
560 1 1.00126 -17.6995 -22.6952 -1.34427 0.0369652 -0.0256183 0.00443754 1.19997e-10
909 1 1.01019 -15.6592 -21.7466 -1.35528 0.00985577 0.0124961 -0.00795667 5.76111e-11
754 1 1.02457 -14.0012 -23.2164 -1.38149 0.0208324 0.0120688 0.00166982 3.146e-11
604 1 1.06569 -12.0687 -22.4222 -1.42364 -0.00897584 0.00953476 0.0250702 1.53892e-11
137 1 0.978604 -10.1834 -21.5384 -1.3259 0.0154828 0.0160502 -0.000919798 7.58276e-12
974 1 1.02246 -8.42683 -22.9661 -1.36143 -0.00515643 -0.021529 0.0111515 3.88562e-12
407 1 1.01131 -6.96545 -21.5523 -1.36603 0.0016844 0.000752614 -0.00447553 2.21302e-12
489 1 1.03105 -5.39132 -22.7866 -1.38831 -0.000112969 0.0105851 -0.00308099 1.19866e-12
495 1 1.07161 -3.49306 -22.093 -1.44096 0.0147321 0.00387051 -0.0025938 5.66892e-13
68 1 0.988356 -1.50614 -21.5798 -1.33198 -0.00708762 -0.0149628 -0.00173299 2.56062e-13
897 1 0.98731 0.0157789 -22.918 -1.34394 -0.00635678 -0.0182595 0.0240628 1.3825e-13
770 1 1.0708 1.93643 -22.0558 -1.43249 0.00856055 -0.00323117 -0.011988 6.29174e-14
53 1 0.984393 5.54985 -22.6649 -1.32385 0.00265831 -0.00720906 -0.0369142 1.39054e-14
696 1 1.02629 7.56967 -21.8721 -1.38234 -0.00756451 -0.00987121 -0.0124712 5.88432e-15
521 1 0.988641 11.1739 -22.5623 -1.33497 0.00598857 -0.0227692 -0.0042298 1.23228e-15
416 1 1.04634 13.1702 -21.6308 -1.4065 -0.0223898 0.00506163 -0.00366872 5.10161e-16
434 1 1.01234 14.9864 -22.6395 -1.35743 -0.00843632 -0.00721608 0.0102311 2.26459e-16
344 1 0.975961 17.046 -21.9612 -1.30721 0.00736546 -0.0172518 0.00663809 8.9139e-17
534 1 0.968394 19.1699 -23.0464 -1.29731 -0.000128984 0.00656597 -0.0363812 3.36527e-17
304 1 0.986385 21.2775 -21.8312 -1.32823 -0.021097 -0.000883601 0.00692341 1.26383e-17
255 1 1.05889 23.7197 -22.7712 -1.41861 0.0247434 0.0138416 0.0247607 3.99926e-18
189 1 1.0567 28.3064 -22.7893 -1.41738 0.000966632 0.0198675 -0.00182727 4.40098e-19
194 1 1.01368 -28.1466 -20.1229 -1.36439 0.00563475 0.0163355 -0.00271388 4.26791e-09
445 1 0.996512 -25.8635 -21.1052 -1.33761 0.0159787 -0.00612023 0.00649732 2.00805e-09
449 1 1.00687 -23.6419 -20.5192 -1.35887 -0.0233368 -0.0162334 -0.00935524 9.50526e-10
78 1 0.973275 -21.3389 -20.9194 -1.30734 -0.00315269 -0.0184827 -0.0196251 4.31335e-10
888 1 0.952443 -19.187 -20.5294 -1.27973 0.0242078 -0.0244104 -0.026695 2.03352e-10
8 1 1.07041 -17.3223 -20.249 -1.44371 0.0165486 -0.0266036 0.00145352 1.04867e-10
276 1 0.943543 -13.6678 -21.0367 -1.27293 -0.0234093 0.0243086 -0.0173307 2.78298e-11
154 1 1.02463 -11.6794 -20.1699 -1.38558 -0.00278852 0.00489647 -0.00704334 1.33077e-11
72 1 0.946938 -8.53272 -20.4045 -1.26902 -0.0223878 -0.000386729 -0.0159101 4.04641e-12
60 1 0.897409 -4.97101 -20.7604 -1.20987 -0.00930738 -0.01022 -0.0225747 1.01642e-12
503 1 1.00893 -3.02456 -20.1007 -1.36499 -0.0182619 0.00430621 0.0124316 4.70495e-13
247 1 1.01003 0.296642 -20.8437 -1.35237 0.0123101 -0.0299655 -0.00757012 1.23298e-13
755 1 0.978309 2.33507 -20.0173 -1.31448 -0.0405896 -0.00493533 0.0267319 5.33626e-14
59 1 0.980322 3.73818 -21.3335 -1.32623 -0.0157036 -0.0147921 0.006909 2.9778e-14
982 1 0.998797 5.5873 -20.6632 -1.33839 0.0110793 0.00529133 0.0122893 1.3687e-14
345 1 0.981337 7.56765 -19.8247 -1.31437 0.000648392 -0.02253 -0.0121375 5.88942e-15
37 1 1.01359 9.42204 -21.1277 -1.3545 -0.021308 -0.0405847 0.0227054 2.6469e-15
778 1 0.953795 11.3602 -20.4174 -1.28035 0.0202499 -0.00845323 -0.00528627 1.13544e-15
697 1 0.999336 15.0013 -20.5272 -1.34903 0.0199447 -0.000717327 0.0197287 2.24949e-16
607 1 1.02386 16.9994 -19.8543 -1.38253 -0.00746698 0.00527332 -0.0136114 9.10541e-17
818 1 1.01069 19.0576 -20.7351 -1.35255 -0.00425735 0.013992 -0.0400904 3.5443e-17
118 1 0.961891 23.2168 -20.5458 -1.2905 0.015892 0.0280335 -0.0141849 5.07563e-18
97 1 0.984984 26.1451 -21.2847 -1.32728 0.0183667 -0.00114669 0.00932976 1.25435e-18
593 1 0.953691 -30.8547 -19.1958 -1.27049 -0.00307229 -0.00504989 0.0128968 1.02392e-08
309 1 0.961168 -26.3462 -18.4849 -1.28989 0.0381264 0.0140927 0.00832749 2.35796e-09
918 1 1.05459 -24.1751 -18.5194 -1.42608 -0.0194043 0.0253253 -0.00505737 1.13888e-09
364 1 0.971274 -21.6874 -18.6807 -1.30543 0.0378708 0.00895066 -0.00543579 4.86587e-10
849 1 0.994406 -19.5641 -18.3884 -1.33493 0.0348801 0.00878884 -0.000174597 2.32214e-10
997 1 1.0514 -15.3636 -19.6132 -1.40862 0.00787398 -0.00377592 0.0104143 5.17485e-11
836 1 1.01053 -13.5559 -18.8139 -1.35834 -0.0168444 -0.0257648 0.0242443 2.67055e-11
244 1 0.966096 -9.88914 -19.1155 -1.29133 0.0102081 0.0056957 0.0059911 6.78338e-12
28 1 1.01739 -8.05452 -18.348 -1.36066 -0.0148161 0.0110022 0.023079 3.36842e-12
987 1 1.01955 -6.53982 -19.5487 -1.36104 -0.00203311 0.0212736 0.00861137 1.87623e-12
965 1 0.976265 -4.59162 -18.7867 -1.29992 0.00353254 -0.0117429 -0.0130225 8.75468e-13
926 1 1.04184 -1.32204 -19.4229 -1.40987 -0.0165615 -0.0197091 0.00392032 2.37748e-13
413 1 0.98834 0.581157 -18.7295 -1.33049 0.00582266 -0.00435553 0.0257311 1.09773e-13
136 1 1.00311 4.09595 -19.1813 -1.35148 0.0252575 0.035564 0.011873 2.56395e-14
519 1 0.946154 5.91098 -18.6497 -1.26046 -0.00801502 0.021303 0.00332108 1.19338e-14
872 1 1.00926 9.60271 -18.98 -1.36707 0.000843475 0.000775457 -0.0111448 2.4472e-15
986 1 1.01405 11.4359 -18.1743 -1.36386 -0.0121933 0.00581909 -0.00113171 1.0983e-15
582 1 1.03248 13.1495 -19.4555 -1.39181 -0.00790311 -0.0063806 -0.000242798 5.14892e-16
840 1 0.972975 15.1214 -18.4504 -1.30107 0.00957179 0.00917516 -0.00133742 2.1311e-16
814 1 0.961718 19.1034 -18.4653 -1.29538 0.0102293 -0.0205401 0.0216607 3.4701e-17
47 1 1.08256 21.1925 -19.5154 -1.45183 -0.00319986 -0.040268 -0.0162241 1.31512e-17
768 1 1.01181 25.0292 -19.3321 -1.35954 0.000775573 0.0127873 0.011828 2.14293e-18
565 1 1.00779 28.8418 -19.6194 -1.34861 -0.00932654 -0.0155524 0.00313522 3.38829e-19
828 1 0.987252 -28.7673 -17.6925 -1.31479 -0.0297558 0.00623355 0.00880217 5.22546e-09
158 1 0.937853 -25.7267 -16.5163 -1.24839 0.00247582 -0.00717191 0.0074553 1.91843e-09
381 1 1.14073 -23.4371 -16.4613 -1.52934 -0.0185889 -0.0331523 0.0101485 8.86554e-10
533 1 1.02141 -21.1333 -16.6396 -1.3737 0.00999897 0.0069806 -0.000667871 4.01653e-10
575 1 0.956561 -19.0012 -16.3642 -1.28983 -0.0204288 -0.00073385 0.0196566 1.90451e-10
950 1 1.00231 -17.4979 -17.9843 -1.3413 -0.00245146 -0.00119691 -1.10301e-05 1.11661e-10
2 1 1.00753 -15.4523 -17.3645 -1.35183 0.00425305 -0.0321153 0.00693511 5.34447e-11
830 1 0.987916 -13.5021 -16.8005 -1.32237 0.00773597 0.00890551 -0.00333623 2.61814e-11
412 1 1.00567 -11.7871 -17.9956 -1.35795 -0.00883055 -0.0137359 0.0238515 1.38545e-11
325 1 1.00669 -9.63151 -16.9814 -1.35984 -0.00110278 0.0376926 -0.0264082 6.15184e-12
898 1 0.965821 -6.32073 -17.5564 -1.29397 -0.0251268 0.00097348 -0.00037713 1.72302e-12
123 1 0.96095 -4.49774 -16.7635 -1.28487 0.00833121 0.00418275 -0.00363511 8.43663e-13
138 1 0.988193 -2.76728 -17.9519 -1.33804 -0.0261578 0.01958 0.0213887 4.24607e-13
527 1 1.02976 -0.852941 -17.3785 -1.38471 0.000939174 -0.0141346 -0.0277634 1.96702e-13
186 1 1.04688 0.977598 -16.7132 -1.41378 -0.0119806 0.0215191 0.0148488 9.33303e-14
166 1 0.923894 2.40473 -18.0313 -1.23401 0.0236408 -0.00601386 0.0106843 5.18462e-14
212 1 1.02162 4.3778 -17.2579 -1.38322 -0.0105981 -0.0212219 -0.00656366 2.27824e-14
650 1 1.02459 6.19754 -16.6845 -1.36753 -0.0117763 -0.0163045 0.0274683 1.05674e-14
594 1 1.00167 8.01009 -17.8331 -1.35156 0.00265237 0.00549358 0.00915164 4.87066e-15
177 1 0.984336 9.84846 -16.8794 -1.31492 -0.014501 0.0405902 -0.0115021 2.1992e-15
789 1 0.955054 13.272 -17.2335 -1.27284 0.0252026 0.0270153 0.00739636 4.87587e-16
632 1 1.04065 15.0917 -16.3952 -1.39733 -0.00882685 0.00405015 0.0281899 2.1598e-16
110 1 0.979865 17.0092 -17.7761 -1.30546 -0.0149542 -0.00467043 -0.00681233 9.06468e-17
948 1 0.97044 18.7762 -16.3923 -1.29867 0.00263013 0.0131579 0.00311171 4.0352e-17
224 1 0.966763 20.8588 -17.3109 -1.29424 0.00779962 -0.00171411 -0.0007346 1.53685e-17
746 1 1.02101 22.9457 -18.052 -1.36272 -0.00103344 0.000638292 -0.0125747 5.76972e-18
490 1 1.02138 24.7434 -16.642 -1.36549 -0.015025 0.0218621 -0.008729 2.45654e-18
181 1 0.943585 26.8507 -17.9437 -1.2577 0.000803169 0.00759347 -0.0226107 8.92399e-19
995 1 1.00329 29.0434 -16.6109 -1.35588 -0.0271542 -0.00359084 0.0138264 3.06981e-19
351 1 1.01429 31.4651 -18.0446 -1.35954 0.0151596 0.0143091 -0.00206164 9.2978e-20
834 1 0.993017 -30.8354 -15.9853 -1.3398 -0.0164697 -0.0179109 -0.00446918 1.01763e-08
748 1 0.982867 -27.7874 -15.2442 -1.33013 -0.00505357 0.00706304 -0.00513326 3.7943e-09
946 1 0.972249 -17.0429 -15.7032 -1.29861 0.051789 0.00583244 6.81714e-05 9.48789e-11
277 1 1.03299 -15.0345 -15.3067 -1.38298 -0.000386646 -0.0262106 -0.00576051 4.59093e-11
193 1 1.03487 -13.0074 -14.8243 -1.38128 0.00869865 -0.0225079 0.00229189 2.18088e-11
393 1 0.901553 -11.4607 -16.0895 -1.19833 0.0131444 0.00801986 0.0151815 1.22623e-11
142 1 0.976308 -9.55741 -15.0975 -1.29894 -0.0386486 -0.0215395 -0.0140909 5.98111e-12
879 1 0.980981 -7.82978 -16.2763 -1.31104 0.027515 0.0169414 0.0493207 3.08957e-12
875 1 1.08061 -6.05505 -15.5132 -1.45441 0.0482995 -0.00861328 -0.00674303 1.55364e-12
889 1 0.97926 -3.97438 -14.9732 -1.30965 -0.00592042 -0.000343653 -0.0049999 6.86084e-13
54 1 1.01455 -2.3911 -16.0608 -1.35979 0.0348895 -0.00460124 0.010863 3.65324e-13
12 1 0.946078 -0.519261 -15.3301 -1.2808 -0.0284597 -0.0181454 0.00625869 1.71829e-13
902 1 0.972586 2.69659 -15.9512 -1.29831 0.0200461 0.0113237 -0.00716027 4.59405e-14
661 1 0.998406 4.46372 -15.3607 -1.34304 0.0382164 0.0254661 0.0218356 2.19756e-14
569 1 1.04644 6.22517 -14.6507 -1.40311 0.000349579 -0.00663038 -0.00540117 1.04441e-14
689 1 0.988437 7.99194 -15.8403 -1.32788 -0.00410491 0.026474 0.0216508 4.9088e-15
684 1 1.01184 9.6484 -14.8605 -1.357 -0.00897482 0.0236258 0.00184019 2.39909e-15
6 1 0.964267 11.6385 -16.0056 -1.29343 -0.0355034 -0.0156443 0.0277409 1.00461e-15
939 1 0.993137 13.3442 -15.2003 -1.33478 -0.00369077 -0.02975 0.0160788 4.72175e-16
701 1 0.991648 16.8782 -15.4629 -1.34136 0.000215262 -0.0204775 -0.0246564 9.62198e-17
928 1 0.966726 20.3275 -15.0231 -1.29042 -0.00331712 -0.0198389 -0.00105095 1.96831e-17
453 1 0.980708 22.4511 -15.9009 -1.31879 -0.00233815 0.00835198 0.00160457 7.28591e-18
491 1 0.988585 26.6984 -15.4501 -1.32833 0.0136871 -0.00434599 0.0132163 9.60532e-19
433 1 1.0002 31.0897 -15.1572 -1.34767 -0.0343616 0.0209555 -0.0359292 1.12012e-19
782 1 0.99071 33.4503 -15.2204 -1.32833 -0.00444338 -0.029794 0.0140772 3.44943e-20
541 1 1.0583 -32.894 -14.4552 -1.41118 -0.0152109 0.0175426 -0.0124203 1.95192e-08
419 1 1.04153 -29.604 -13.6895 -1.40869 -0.00189976 -0.000651753 0.0202201 6.85285e-09
116 1 0.948922 -27.1429 -13.0221 -1.2743 -0.0157831 -0.0327901 -0.0131847 3.06947e-09
321 1 0.944827 -25.1928 -14.461 -1.25979 -0.0165358 0.0278806 -0.013775 1.60456e-09
256 1 1.00102 -22.8523 -14.415 -1.34521 -0.0190597 0.0313742 -0.00532415 7.26196e-10
642 1 0.94859 -20.7208 -14.4573 -1.26978 -0.0328122 -0.0255602 -0.0179762 3.48014e-10
483 1 1.06285 -18.8118 -14.4081 -1.43563 -0.0223316 0.020553 -0.0123094 1.78126e-10
202 1 0.981287 -16.8074 -13.7464 -1.32365 0.0149242 -0.0108954 0.0167626 8.7191e-11
164 1 0.982763 -14.768 -13.3004 -1.32844 -0.0105624 -0.0210113 -0.00694931 4.16581e-11
327 1 1.04519 -11.2542 -14.0608 -1.41934 0.00701107 -0.0276094 0.0121324 1.13489e-11
937 1 1.01757 -9.28271 -13.225 -1.36752 0.00828579 0.00333555 0.0123005 5.38782e-12
525 1 1.032 -7.71729 -14.3641 -1.38696 0.0152411 0.0178198 0.0284195 2.95863e-12
143 1 1.03608 -5.59448 -13.7399 -1.39626 0.00776257 0.0439341 -0.0242006 1.29788e-12
994 1 0.996561 -3.78122 -13.0606 -1.3266 0.00813337 0.00875592 0.0067633 6.35554e-13
841 1 0.968189 -2.1409 -14.0728 -1.29241 0.0141455 0.00112141 0.0167927 3.30478e-13
540 1 0.974049 -0.330293 -13.4413 -1.30039 -0.0105388 -0.0131425 -0.00336276 1.59142e-13
273 1 1.05086 1.25168 -14.6167 -1.40554 0.00502134 -0.0278948 -0.00314749 8.34039e-14
827 1 0.991527 2.9651 -13.8742 -1.33191 -0.00622803 0.0194148 -0.0014624 4.10943e-14
263 1 0.982119 4.70691 -13.4124 -1.31534 0.0142164 0.0143848 0.0326015 1.9841e-14
878 1 0.965707 8.10711 -13.861 -1.30269 -0.00570894 0.022319 -0.0345425 4.67163e-15
538 1 1.04605 11.5273 -14.0864 -1.42302 -0.00130279 -0.0138261 0.0161348 1.055e-15
535 1 0.969978 13.2238 -13.221 -1.28417 0.0179045 0.0002039 -0.0131527 4.98149e-16
529 1 0.951001 15.0003 -14.3751 -1.27475 0.00126126 0.00468271 0.00854936 2.25053e-16
43 1 0.984441 16.6431 -13.2385 -1.3223 0.0145243 -0.00537598 -0.0137839 1.07078e-16
543 1 0.982996 18.4773 -14.0631 -1.31986 0.00078996 -0.00325509 0.0231748 4.63e-17
613 1 0.971331 21.9483 -13.5679 -1.29992 -0.0114578 -0.0189554 0.0124369 9.22923e-18
858 1 0.982826 24.1186 -14.5529 -1.32353 -0.0152308 -0.0183047 0.0109221 3.30881e-18
881 1 0.957434 26.027 -13.3327 -1.29385 -0.0156845 -0.0368391 0.00629136 1.32769e-18
49 1 1.04128 28.9298 -13.6854 -1.38642 0.0201936 -0.00789207 0.0119528 3.24546e-19
749 1 1.02711 -34.3711 -11.9668 -1.37683 0.00783187 0.0310561 0.0013865 3.09182e-08
367 1 1.00287 -31.3418 -11.9446 -1.34717 -0.0142214 -0.00473384 0.0150697 1.19579e-08
945 1 1.03292 -28.7963 -11.2584 -1.38625 -0.00242464 -0.0153823 -0.0164306 5.27493e-09
623 1 0.958431 -24.9469 -12.2387 -1.28758 0.00840433 0.0035196 -0.0133412 1.47741e-09
301 1 0.982466 -22.7159 -12.4411 -1.31976 0.0406639 -0.0114504 -0.00808577 6.93057e-10
92 1 0.987949 -20.5528 -12.4494 -1.32164 0.0261479 -0.012294 -0.0172668 3.28225e-10
401 1 1.0219 -18.4869 -12.3211 -1.37056 -0.0205264 0.0130757 0.00680184 1.58771e-10
148 1 0.956065 -16.4514 -11.7666 -1.28732 0.0173753 0.0242273 0.00392621 7.67079e-11
35 1 1.03518 -14.4575 -11.4545 -1.4038 -0.0151592 -0.00125301 -0.0222695 3.71875e-11
810 1 0.999232 -12.8502 -12.8687 -1.33711 -0.010261 -0.00459845 0.0131403 2.05758e-11
539 1 0.987052 -10.9602 -12.2655 -1.32531 0.00446436 0.011662 -0.0147885 1.01629e-11
296 1 0.988599 -8.81108 -11.3454 -1.33378 0.0140849 0.0162653 0.0138502 4.50093e-12
715 1 1.01303 -7.31898 -12.5504 -1.35434 -0.00976403 0.0104652 0.00897385 2.53729e-12
258 1 0.980838 -5.26958 -11.711 -1.31847 0.00320313 0.0041463 -0.0273267 1.14281e-12
297 1 1.00993 -1.9164 -12.1686 -1.35905 -0.012839 0.0238693 -0.00052897 3.02004e-13
638 1 0.962659 -0.154749 -11.4443 -1.27474 -0.00994139 -0.0137737 0.0111439 1.48184e-13
25 1 0.892676 1.40834 -12.6722 -1.19435 -0.022189 0.00740356 -0.000742504 7.82042e-14
11 1 1.00634 3.14337 -12.0055 -1.35434 0.0230272 0.00729251 -0.00159028 3.81584e-14
620 1 1.02851 4.9501 -11.4382 -1.37718 -0.0240177 0.0289184 -0.00883093 1.79108e-14
470 1 0.981297 6.37498 -12.6747 -1.32324 -0.0240578 0.0133526 -0.0288075 9.79984e-15
821 1 1.06747 8.26942 -11.9872 -1.43539 0.00633063 0.00741937 -0.012624 4.3564e-15
867 1 1.03915 10.0428 -12.8578 -1.40332 -0.00498314 -0.0285436 0.0275141 2.02078e-15
815 1 0.975891 11.86 -11.8821 -1.30593 -0.014653 -0.00522881 -0.0164812 9.11248e-16
111 1 1.04187 14.801 -12.3428 -1.40356 -0.0105794 0.00638664 -0.010027 2.46144e-16
414 1 1.02589 18.1883 -11.8338 -1.38378 -0.00584538 -0.0196854 -0.0210445 5.28723e-17
925 1 1.01651 19.943 -12.6147 -1.36097 0.0152139 -0.00841003 0.00995863 2.35309e-17
195 1 0.943748 21.7292 -11.2739 -1.25708 0.0120078 0.0210676 0.0346328 1.02287e-17
477 1 0.948277 23.843 -12.3546 -1.26913 -0.0106355 0.016004 -0.0101318 3.77197e-18
69 1 0.987489 27.7966 -11.8725 -1.31483 -0.0150208 0.0159248 0.000740767 5.64104e-19
735 1 1.02247 31.1513 -12.545 -1.37187 -0.0190861 0.0265836 0.00336273 1.08643e-19
1000 1 1.02607 34.0405 -12.1476 -1.38127 0.00951865 -0.00812901 0.00313697 2.56322e-20
852 1 1.00421 -32.8481 -9.59721 -1.34306 -0.00681937 -0.0351272 -0.0119402 1.92401e-08
215 1 1.0081 -26.3184 -10.6225 -1.3537 -0.01112 -0.0347209 -0.00708945 2.33627e-09
961 1 0.922497 -24.0762 -10.2303 -1.23334 -0.0125874 0.00550938 -0.0161102 1.1014e-09
892 1 1.01439 -21.8999 -10.412 -1.37368 0.00810491 0.0044903 0.032574 5.23612e-10
526 1 1.05771 -19.83 -10.4354 -1.40872 0.00570313 0.0214102 -0.000952389 2.54931e-10
536 1 0.990395 -17.8972 -10.3587 -1.33506 -0.0230233 -0.00230887 -0.00584245 1.28757e-10
475 1 0.934823 -15.8894 -9.90175 -1.2674 -0.0105591 -0.0298009 -0.00472129 6.26207e-11
133 1 0.94253 -13.9326 -9.55704 -1.26411 -0.00987297 -0.0287754 0.00799407 3.06765e-11
551 1 1.03526 -12.4763 -10.9491 -1.3941 -0.010028 -0.0184112 -0.017255 1.79105e-11
427 1 1.017 -10.492 -10.4721 -1.3797 -0.00277015 0.0333853 -0.0320208 8.52013e-12
222 1 0.999441 -8.34343 -9.57768 -1.34117 -0.00952498 -0.000650498 0.00261604 3.76337e-12
672 1 0.941165 -6.8512 -10.7515 -1.25698 -0.00592924 0.00588226 0.0192783 2.11719e-12
83 1 1.04841 -5.07188 -9.79215 -1.40111 -0.0245347 -0.00926094 -0.0172702 1.05751e-12
515 1 0.94121 -3.43302 -11.1407 -1.2622 -0.0128483 0.00349592 -0.0177092 5.53531e-13
354 1 1.02044 -1.68154 -10.2032 -1.37047 -0.0218974 -0.0103342 0.00141396 2.74796e-13
505 1 1.033 0.175151 -9.63788 -1.3827 0.0287648 0.0215395 -0.0169362 1.2956e-13
362 1 0.984914 1.6677 -10.7947 -1.32993 0.00758006 0.00937977 0.01415 7.02882e-14
64 1 1.05625 3.48501 -10.1425 -1.41192 0.0272284 -0.00794395 -0.00291636 3.30969e-14
633 1 1.03353 5.05534 -9.50199 -1.39638 0.0114076 -0.0105862 -0.0239112 1.7134e-14
855 1 1.0046 6.73173 -10.8753 -1.35232 0.0146125 -0.027253 -0.00608393 8.41888e-15
286 1 1.0215 8.48769 -10.0402 -1.36419 0.0213846 0.014247 0.000439952 3.96529e-15
951 1 0.944409 10.1224 -10.9941 -1.2748 -0.0320834 0.0196162 0.00323208 1.9519e-15
125 1 0.960493 12.0752 -9.99233 -1.2777 0.0117332 0.0202504 0.0132525 8.28686e-16
507 1 1.00161 13.8628 -10.6329 -1.33886 -0.0112377 0.0188199 0.0160254 3.74694e-16
171 1 1.05389 16.2624 -11.133 -1.41646 -0.0135373 0.00616609 -0.00805201 1.27278e-16
795 1 0.992205 17.6998 -9.72041 -1.33217 -0.0127962 0.00135348 -0.0208679 6.6136e-17
46 1 1.00765 19.7009 -10.5531 -1.35352 -0.0305769 -0.0262792 -0.0152537 2.63258e-17
812 1 0.976884 23.5158 -10.1081 -1.30088 0.0140783 -0.0103255 -0.00254678 4.40533e-18
159 1 0.970339 25.4734 -11.0846 -1.30559 0.00589724 -0.000886002 0.0162958 1.73222e-18
890 1 1.02856 27.3018 -9.77289 -1.37847 0.0132087 0.00103134 0.0186135 7.17302e-19
882 1 0.9957 29.9102 -10.6237 -1.34316 -0.000575266 -0.00125053 -0.00772675 2.00578e-19
707 1 0.995174 32.6263 -10.1001 -1.339 0.00564737 -0.00829539 -0.0196171 5.21283e-20
236 1 1.04248 -30.3938 -9.30802 -1.40741 -0.0210299 -0.00555571 -0.0393706 8.83534e-09
936 1 1.01328 -28.1283 -9.06391 -1.35471 -0.00237114 -0.0153559 -0.00330177 4.24252e-09
586 1 0.991136 -25.8029 -8.53631 -1.34199 0.0140506 -0.00496193 0.0270314 1.96782e-09
914 1 1.03737 -23.6044 -8.31534 -1.39695 0.0140329 0.0244516 -0.0228817 9.38466e-10
436 1 0.991233 -21.5415 -8.52425 -1.33611 -0.00707778 -0.0267395 0.0206563 4.62662e-10
34 1 0.997033 -19.4321 -8.48398 -1.3424 -0.0115167 0.00104795 -0.00448124 2.21683e-10
282 1 0.985322 -17.4523 -8.42811 -1.32387 -0.0337249 0.0255678 0.0141838 1.09856e-10
447 1 1.05222 -15.4921 -8.04619 -1.41699 0.00603955 0.00723162 -0.00258867 5.42226e-11
219 1 1.05822 -12.044 -9.12705 -1.42524 0.024776 -0.0430998 0.0159754 1.52483e-11
66 1 1.03888 -10.1288 -8.78358 -1.39341 0.0519949 0.0178194 0.000282608 7.42773e-12
629 1 0.989443 -6.64215 -8.73521 -1.32954 -0.0118699 -0.00382565 -0.00752299 1.95229e-12
743 1 0.995474 -3.24892 -9.30361 -1.33442 -0.00252358 -0.0112146 0.0129909 5.14461e-13
241 1 0.954899 -1.3094 -8.20757 -1.27659 0.0138364 -0.0293378 -0.0027289 2.3654e-13
40 1 1.07505 0.512593 -7.8685 -1.44391 -0.0095339 -0.00802437 -0.0106808 1.12893e-13
375 1 0.993578 2.00626 -8.83827 -1.33091 0.00202726 -0.0137976 0.0123003 6.11299e-14
740 1 0.952797 3.52448 -8.04719 -1.28703 0.00120332 -0.0291223 0.010401 3.25565e-14
461 1 0.963712 6.86055 -8.95797 -1.29572 -0.0153748 -0.0159087 -0.00729175 7.96884e-15
235 1 0.945542 8.70883 -8.12422 -1.26961 0.0178248 0.0222608 -0.0165701 3.60435e-15
289 1 1.02997 10.3287 -9.137 -1.38488 -0.013711 -0.0181265 -0.00452491 1.78393e-15
869 1 0.982192 11.9264 -7.9298 -1.31056 0.0125087 0.00573163 0.00036575 8.84938e-16
394 1 1.05528 13.6747 -8.66945 -1.41127 -0.0113703 0.0121277 0.00312892 4.07509e-16
439 1 0.998112 15.5588 -9.28363 -1.33903 0.0396498 -0.0281533 -0.00518521 1.7498e-16
562 1 0.936701 17.1956 -7.88653 -1.26275 -0.0264635 -0.00801708 0.0120034 8.32639e-17
311 1 1.00809 19.3226 -8.56128 -1.35519 -0.00062279 -0.0263098 -0.000479504 3.13612e-17
239 1 0.99743 21.3217 -9.11379 -1.34148 -0.010246 0.0103206 -0.0174961 1.23798e-17
96 1 1.00563 23.022 -7.99371 -1.3522 0.0280353 0.0203966 0.00256679 5.56532e-18
751 1 1.04229 25.2498 -8.73562 -1.40173 0.0301381 -0.0131564 -0.0152137 1.92818e-18
891 1 1.02743 28.5304 -7.93203 -1.37298 -0.0197147 -0.000111954 0.0159755 3.94528e-19
506 1 1.01828 30.8038 -8.46259 -1.36677 0.0032654 -0.0147193 -0.0335019 1.2905e-19